/*--------------------------------*- C++ -*----------------------------------*\
| =========                 |                                                 |
| \\      /  F ield         | OpenFOAM: The Open Source CFD Toolbox           |
|  \\    /   O peration     | Version:  1.7.1                                 |
|   \\  /    A nd           | Web:      www.OpenFOAM.com                      |
|    \\/     M anipulation  |                                                 |
\*---------------------------------------------------------------------------*/
FoamFile
{
    version     2.0;
    format      ascii;
    class       volVectorField;
    object      F;
}
// * * * * * * * * * * * * * * * * * * * * * * * * * * * * * * * * * * * * * //

dimensions      [0 1 -2 0 0 0 0];

internalField   uniform (1 0 0);

boundaryField
{
    leftRight
    {
        type            cyclic;
    }

    topFace
    {
        type            fixedValue;
        value           uniform (1 0 0);
    }

    bottomFace
    {
        type            fixedValue;
        value           uniform (1 0 0);
    }


    defaultFaces
    {
        type            empty;
    }
}

// ************************************************************************* //
