/*--------------------------------*- C++ -*----------------------------------*\
| =========                 |                                                 |
| \\      /  F ield         | OpenFOAM: The Open Source CFD Toolbox           |
|  \\    /   O peration     | Version:  1.7.1                                 |
|   \\  /    A nd           | Web:      www.OpenFOAM.com                      |
|    \\/     M anipulation  |                                                 |
\*---------------------------------------------------------------------------*/
FoamFile
{
    version     2.0;
    format      ascii;
    class       volScalarField;
    object      p;
}
// * * * * * * * * * * * * * * * * * * * * * * * * * * * * * * * * * * * * * //

dimensions      [1 -1 -2 0 0 0 0];

internalField   uniform 0;

boundaryField
{
    leftFace
    {
        type            zeroGradient;
    }

    rightFace
    {
        type            zeroGradient;
    }

    topFace
    {
        type            fixedValue;
        value           uniform 0;
    }

    bottomFace
    {
        type            zeroGradient;
    }


    defaultFaces
    {
        type            empty;
    }
}

// ************************************************************************* //
